
Host: CHEM353Q05NALT

Timers On : Tue Aug  1 13:10:41 2023
Timers Off: Tue Aug  1 13:12:39 2023

Wall Time:      117.57 seconds

                                                       Time (seconds)
Module                                       User      System        Wall        Calls

--------------------------------------------------------------------------------------

**************************************************************************************
