
Host: CHEMYY31VALT

Timers On : Fri Jun 14 12:52:27 2024
Timers Off: Fri Jun 14 12:54:51 2024

Wall Time:      144.06 seconds

                                                       Time (seconds)
Module                                       User      System        Wall        Calls

--------------------------------------------------------------------------------------

**************************************************************************************
